1005
 Step: 100
 N      -0.0040    0.2990    0.0000
 H1      0.1200    1.3010    0.0000
 H2     -0.6510    0.2140   -0.7690
 H3     -0.6510    0.2140    0.7690
 CA      1.1780   -0.5400    0.0000
 HA      1.1770   -1.1690    0.8900
 CB      1.2140   -1.4380   -1.2320
 HB1     0.3320   -2.0780   -1.2410
 HB2     1.2240   -0.8220   -2.1310
 CG      2.4560   -2.2940   -1.1950
 HG1     3.3390   -1.6540   -1.1860
 HG2     2.4470   -2.9110   -0.2960
 CD      2.4930   -3.1930   -2.4290
 OE1     3.0680   -2.7410   -3.4540
 OE2     1.9440   -4.3230   -2.3340
 C       2.4470    0.3010   -0.0000
 O       2.6267    1.1588   -0.8612
 N       3.3669    0.1041    0.9402
 H       3.2820   -0.5828    1.6753
 CA      4.5596    0.9269    0.9025
 HA      4.6711    1.3597   -0.0915
 CB      4.4783    2.0588    1.9211
 HB1     3.6149    2.6858    1.6994
 HB2     4.3751    1.6406    2.9222
 CG      5.6787    2.9734    1.9564
 CD1     5.7149    4.0467    2.8537
 HD1     4.8753    4.2241    3.5257
 CE1     6.8282    4.8961    2.8857
 HE1     6.8562    5.7320    3.5844
 CZ      7.9071    4.6693    2.0221
 HZ      8.7728    5.3287    2.0474
 CE2     7.8708    3.5940    1.1251
 HE2     8.7095    3.4186    0.4526
 CD2     6.7566    2.7466    1.0927
 HD2     6.7295    1.9097    0.3943
 C       5.8021    0.1057    1.2177
 O       5.8036   -0.6883    2.1555
 N       6.8933    0.2503    0.4711
 H       6.9591    0.8837   -0.3124
 CA      8.0535   -0.5513    0.8065
 HA      7.9614   -0.9131    1.8304
 CB      8.1797   -1.7517   -0.1255
 HB1     7.2891   -2.3739   -0.0393
 HB2     8.2813   -1.4048   -1.1537
 CG      9.4098   -2.5678    0.2591
 OD1     9.2498   -3.4874    1.1071
 OD2    10.5000   -2.2659   -0.2968
 C       9.3343    0.2635    0.6918
 O       9.5257    0.9910   -0.2798
 N      10.2518    0.1859    1.6516
 H      10.1575   -0.3912    2.4747
 CA     11.4560    0.9786    1.5018
 HA     11.5731    1.2677    0.4576
 CB     11.3913    2.2418    2.3536
 HB     10.5368    2.8441    2.0459
 CG1    11.2392    1.8567    3.8225
 1HG1   12.0937    1.2545    4.1302
 2HG1   11.1933    2.7609    4.4313
 3HG1   10.3231    1.2820    3.9550
 CG2    12.6730    3.0466    2.1688
 1HG2   12.7817    3.3205    1.1195
 2HG2   12.6281    3.9495    2.7771
 3HG2   13.5275    2.4444    2.4765
 C      12.6869    0.1915    1.9297
 O      12.6776   -0.4647    2.9685
 N      13.7797    0.2157    1.1719
 H      13.8541    0.7334    0.3082
 CA     14.9285   -0.5479    1.6169
 HA     14.8318   -0.7629    2.6809
 CB     15.0010   -1.8574    0.8383
 HB     14.0925   -2.4339    1.0099
 CG2    15.1369   -1.5557   -0.6505
 1HG2   16.0456   -0.9791   -0.8243
 2HG2   15.1893   -2.4906   -1.2087
 3HG2   14.2730   -0.9809   -0.9865
 CG1    16.2091   -2.6611    1.3066
 1HG1   17.1187   -2.0842    1.1338
 2HG1   16.1134   -2.8761    2.3707
 CD     16.2826   -3.9697    0.5277
 HD1    16.3794   -3.7551   -0.5372
 HD2    17.1468   -4.5444    0.8615
 HD3    15.3732   -4.5462    0.6992
 C      16.2207    0.2249    1.3922
 O      16.4219    0.8079    0.3294
 N      17.1375    0.2681    2.3548
 H      17.0355   -0.1878    3.2498
 CA     18.3528    1.0153    2.0984
 HA     18.4735    1.1552    1.0243
 CB     18.3065    2.3853    2.7666
 HB1    17.4605    2.9511    2.3771
 HB2    18.1945    2.2611    3.8436
 CG     19.5994    3.1385    2.4739
 HG     20.4454    2.5726    2.8634
 CD1    19.7552    3.3131    0.9663
 1HD1   18.9093    3.8784    0.5760
 2HD1   20.6803    3.8501    0.7573
 3HD1   19.7891    2.3336    0.4885
 CD2    19.5531    4.5084    3.1422
 1HD2   19.4421    4.3834    4.2197
 2HD2   20.4773    5.0463    2.9326
 3HD2   18.7071    5.0743    2.7527
 C      19.5726    0.2778    2.6330
 O      19.5545   -0.2278    3.7528
 N      20.6652    0.1813    1.8808
 H      20.7465    0.5731    0.9538
 CA     21.8033   -0.5295    2.4290
 HA     21.7041   -0.5934    3.5125
 CB     21.8928   -1.9427    1.8630
 HB1    20.9853   -2.4921    2.1125
 HB2    22.0011   -1.8945    0.7797
 CG     23.0996   -2.6558    2.4629
 HG1    24.0070   -2.1064    2.2135
 HG2    22.9913   -2.7040    3.5463
 CD     23.1891   -4.0690    1.8969
 HD1    22.2816   -4.6185    2.1463
 HD2    23.2984   -4.0200    0.8131
 CE     24.3958   -4.7808    2.4970
 HE1    25.3042   -4.2314    2.2477
 HE2    24.2885   -4.8304    3.5802
 NZ     24.4824   -6.1436    1.9513
 HZ1    24.5825   -6.0979    0.9468
 HZ2    25.2814   -6.6149    2.3485
 HZ3    23.6418   -6.6517    2.1822
 C      23.1063    0.1864    2.1012
 O      23.3152    0.6136    0.9682
 N      24.0240    0.3497    3.0499
 H      23.9160    0.0238    3.9994
 CA     25.2497    1.0369    2.6942
 HA     25.3718    1.0248    1.6113
 CB     25.2232    2.4868    3.1660
 HB1    25.1100    2.5147    4.2496
 HB2    26.1547    2.9778    2.8860
 HB3    24.3851    3.0050    2.7005
 C      26.4592    0.3635    3.3277
 O      26.4344    0.0182    4.5067
 N      27.5499    0.1481    2.5977
 H      27.6363    0.4064    1.6255
 CA     28.6781   -0.4958    3.2409
 HA     29.0132    0.1126    4.0807
 CB     28.2983   -1.8782    3.7607
 HB1    27.9687   -2.5015    2.9297
 HB2    29.1632   -2.3380    4.2380
 HB3    27.4903   -1.7843    4.4860
 C      29.8383   -0.6663    2.2701
 O      29.6681   -0.5169    1.0624
 N      31.0505   -0.9809    2.7362
 H      31.2642   -1.1188    3.7130
 CA     32.1199   -1.1316    1.7706
 HA1    31.7036   -1.4454    0.8135
 HA2    32.6357   -0.1794    1.6482
 C      33.1184   -2.1791    2.2442
 O      32.7946   -3.0106    3.0897
 N      34.3516   -2.1853    1.7309
 H      34.6751   -1.5291    1.0351
 CA     35.2759   -3.1964    2.2046
 HA     35.2429   -3.2373    3.2932
 CB     34.9151   -4.5718    1.6536
 HB1    34.9522   -4.5486    0.5647
 HB2    35.6248   -5.3104    2.0249
 HB3    33.9093   -4.8400    1.9763
 C      36.7013   -2.8814    1.7726
 O      36.9204   -2.3451    0.6890
 N      37.7157   -3.1899    2.5756
 H      37.6056   -3.6307    3.4773
 CA     39.0562   -2.8723    2.1247
 HA     39.3328   -1.8794    2.4787
 CB     40.0684   -3.8802    2.6588
 HB1    40.0545   -3.8665    3.7484
 HB2    39.8092   -4.8781    2.3055
 CG     41.4759   -3.5467    2.1854
 OD1    41.6764   -2.5705    1.4676
 ND2    42.4521   -4.3625    2.5910
 1HD2   43.4050   -4.1864    2.3054
 2HD2   42.2326   -5.1518    3.1819
 C      39.1413   -2.8882    0.6048
 O      38.8917   -3.9144   -0.0231
 N      39.4885   -1.7817   -0.0463
 H      39.7061   -0.9065    0.4076
 CA     39.5570   -1.8414   -1.4930
 HA     38.5678   -2.0599   -1.8948
 CB     40.0384   -0.5167   -2.0751
 HB1    39.3480    0.2772   -1.7912
 HB2    41.0316   -0.2889   -1.6884
 CG     40.0966   -0.6198   -3.5952
 HG1    40.7870   -1.4137   -3.8792
 HG2    39.1035   -0.8476   -3.9819
 CD     40.5780    0.7049   -4.1774
 HD1    39.8876    1.4988   -3.8934
 HD2    41.5721    0.9317   -3.7908
 CE     40.6359    0.6006   -5.6968
 HE1    41.3267   -0.1938   -5.9816
 HE2    39.6435    0.3735   -6.0849
 NZ     41.1002    1.8779   -6.2585
 HZ1    42.0209    2.0884   -5.8992
 HZ2    41.1387    1.8088   -7.2645
 HZ3    40.4609    2.6126   -5.9949
 C      40.5194   -2.9283   -1.9516
 O      40.1930   -3.7183   -2.8343
 N      41.7219   -3.0216   -1.3912
 H      42.0524   -2.4059   -0.6625
 CA     42.6061   -4.0710   -1.8581
 HA     42.8399   -3.9079   -2.9100
 CB     43.9088   -4.0847   -1.0653
 HB     44.4141   -3.1260   -1.1802
 CG1    43.6026   -4.3243    0.4106
 1HG1   43.0972   -5.2830    0.5255
 2HG1   44.5349   -4.3342    0.9772
 3HG1   42.9591   -3.5276    0.7827
 CG2    44.8096   -5.1994   -1.5854
 1HG2   45.0271   -5.0284   -2.6395
 2HG2   45.7407   -5.2104   -1.0195
 3HG2   44.3043   -6.1581   -1.4705
 C      41.9573   -5.4403   -1.7106
 O      41.9837   -6.2461   -2.6378
 N      41.3579   -5.7648   -0.5685
 H      41.3003   -5.1509    0.2310
 CA     40.7532   -7.0786   -0.4714
 HA     41.5254   -7.8418   -0.5663
 CB     40.0488   -7.2612    0.8687
 HB1    39.2671   -6.5093    0.9743
 HB2    39.6044   -8.2550    0.9140
 HB3    40.7711   -7.1491    1.6771
 C      39.7223   -7.2901   -1.5715
 O      39.7171   -8.3272   -2.2303
 N      38.8214   -6.3437   -1.8198
 H      38.7702   -5.4697   -1.3168
 CA     37.8587   -6.5866   -2.8758
 HA     37.2424   -7.4467   -2.6147
 CB     36.9499   -5.3789   -3.0788
 HB     36.4097   -5.1713   -2.1554
 CG1    37.7947   -4.1655   -3.4573
 1HG1   38.3349   -4.3731   -4.3808
 2HG1   37.1440   -3.3020   -3.6027
 3HG1   38.5065   -3.9546   -2.6597
 CG2    35.9537   -5.6733   -4.1949
 1HG2   35.3514   -6.5404   -3.9245
 2HG2   35.3039   -4.8109   -4.3411
 3HG2   36.4939   -5.8809   -5.1183
 C      38.5564   -6.8715   -4.1985
 O      38.2082   -7.8218   -4.8953
 N      39.5501   -6.0845   -4.6012
 H      39.8850   -5.2887   -4.0778
 CA     40.1863   -6.3922   -5.8667
 HA     39.4583   -6.2961   -6.6721
 CB     41.3390   -5.4223   -6.1053
 HB     40.9576   -4.4020   -6.1285
 CG2    42.3575   -5.5578   -4.9781
 1HG2   42.7406   -6.5781   -4.9534
 2HG2   43.1825   -4.8656   -5.1471
 3HG2   41.8799   -5.3267   -4.0252
 CG1    42.0080   -5.7454   -7.4367
 1HG1   42.3907   -6.7667   -7.4128
 2HG1   41.2805   -5.6501   -8.2425
 CD     43.1611   -4.7769   -7.6749
 HD1    43.8900   -4.8726   -6.8693
 HD2    43.6405   -5.0080   -8.6264
 HD3    42.7793   -3.7559   -7.6977
 C      40.7347   -7.8123   -5.8735
 O      40.5236   -8.5579   -6.8270
 N      41.4477   -8.2472   -4.8383
 H      41.6576   -7.6874   -4.0247
 CA     41.9505   -9.6058   -4.8864
 HA     42.6453   -9.7067   -5.7199
 CB     42.6798   -9.9674   -3.5969
 HB1    43.5206   -9.2893   -3.4525
 HB2    41.9943   -9.8793   -2.7542
 CG     43.1926  -11.4005   -3.6866
 HG1    42.3519  -12.0786   -3.8310
 HG2    43.8782  -11.4886   -4.5293
 CD     43.9219  -11.7620   -2.3971
 HD1    44.7627  -11.0839   -2.2528
 HD2    43.2352  -11.6746   -1.5547
 CE     44.4339  -13.1947   -2.4880
 HE1    43.5929  -13.8739   -2.6324
 HE2    45.1200  -13.2842   -3.3296
 NZ     45.1371  -13.5437   -1.2445
 HZ1    44.5008  -13.4614   -0.4638
 HZ2    45.4760  -14.4923   -1.3045
 HZ3    45.9151  -12.9152   -1.1112
 C      40.8163  -10.6036   -5.0749
 O      40.9060  -11.4990   -5.9116
 N      39.7208  -10.5036   -4.3273
 H      39.5830   -9.7931   -3.6233
 CA     38.6658  -11.4745   -4.5400
 HA     39.0350  -12.4710   -4.2985
 CB     37.4579  -11.1748   -3.6586
 HB1    37.0720  -10.1834   -3.8951
 HB2    36.6822  -11.9184   -3.8389
 HB3    37.7558  -11.2073   -2.6108
 C      38.1979  -11.4668   -5.9887
 O      38.0581  -12.5209   -6.6045
 N      37.9391  -10.3093   -6.5905
 H      38.0331   -9.4091   -6.1430
 CA     37.4961  -10.3484   -7.9701
 HA     36.5426  -10.8727   -8.0308
 CB     37.3154   -8.9410   -8.5289
 HB     36.5703   -8.4085   -7.9383
 CG1    38.6447   -8.1940   -8.4634
 1HG1   39.3898   -8.7266   -9.0540
 2HG1   38.5148   -7.1874   -8.8635
 3HG1   38.9775   -8.1337   -7.4276
 CG2    36.8498   -9.0247   -9.9783
 1HG2   35.9011   -9.5591  -10.0246
 2HG2   36.7205   -8.0196  -10.3788
 3HG2   37.5949   -9.5572  -10.5689
 C      38.5062  -11.0721   -8.8497
 O      38.1360  -11.9276   -9.6502
 N      39.7986  -10.7746   -8.7492
 H      40.1691  -10.0834   -8.1133
 CA     40.7254  -11.4878   -9.6055
 HA     40.5041  -11.2616  -10.6484
 CB     42.1662  -11.0821   -9.3136
 HB1    42.2845  -10.0126   -9.4859
 HB2    42.4051  -11.3105   -8.2750
 CG     43.1081  -11.8520  -10.2326
 HG1    42.9898  -12.9216  -10.0603
 HG2    42.8692  -11.6236  -11.2711
 CD     44.5488  -11.4464   -9.9406
 HD1    44.6671  -10.3768  -10.1130
 HD2    44.7874  -11.6761   -8.9017
 NE     45.4921  -12.1755  -10.8161
 HE     45.1186  -12.8344  -11.4841
 CZ     46.8102  -12.0037  -10.7626
 NH1    47.3766  -11.1557   -9.9092
 1HH1   46.7989  -10.6195   -9.2765
 2HH1   48.3812  -11.0509   -9.8967
 NH2    47.5664  -12.7115  -11.5957
 1HH2   47.1333  -13.3553  -12.2428
 2HH2   48.5708  -12.6025  -11.5790
 C      40.6149  -12.9922   -9.3999
 O      40.5450  -13.7500  -10.3645
 N      40.5938  -13.4910   -8.1604
 H      40.6471  -12.9304   -7.3226
 CA     40.4873  -14.9289   -8.0199
 HA1    41.3639  -15.4029   -8.4612
 HA2    40.4277  -15.1871   -6.9627
 C      39.2389  -15.4398   -8.7262
 O      39.2996  -16.4179   -9.4683
 N      38.0753  -14.8133   -8.5311
 H      37.9635  -14.0065   -7.9345
 CA     36.9075  -15.3267   -9.2193
 HA     36.6993  -16.3397   -8.8755
 CB     35.6839  -14.4580   -8.9475
 HB1    35.8744  -13.4426   -9.2943
 HB2    34.8230  -14.8662   -9.4761
 HB3    35.4795  -14.4431   -7.8772
 C      37.1293  -15.3599  -10.7251
 O      36.8381  -16.3602  -11.3764
 N      37.6422  -14.2969  -11.3382
 H      37.9027  -13.4447  -10.8635
 CA     37.8365  -14.3717  -12.7727
 HA     36.8714  -14.4939  -13.2641
 CB     38.4976  -13.1044  -13.3042
 HB     38.6313  -13.1882  -14.3823
 CG2    37.6130  -11.9016  -12.9926
 1HG2   37.4797  -11.8166  -11.9151
 2HG2   38.0851  -10.9944  -13.3727
 3HG2   36.6422  -12.0314  -13.4700
 OG1    39.7721  -12.9339  -12.6774
 HG1    40.1885  -12.1356  -13.0127
 C      38.7247  -15.5509  -13.1446
 O      38.4040  -16.3101  -14.0560
 N      39.8613  -15.7608  -12.4741
 H      40.1878  -15.1800  -11.7158
 CA     40.6700  -16.8965  -12.8676
 HA1    40.1007  -17.8148  -12.7244
 HA2    40.9460  -16.7997  -13.9175
 C      41.9371  -16.9623  -12.0259
 O      42.0862  -16.2103  -11.0650
 N      42.8867  -17.8469  -12.3427
 H      42.8212  -18.4893  -13.1189
 CA     44.0795  -17.8820  -11.5199
 HA     44.4872  -16.8755  -11.4281
 CB     43.7685  -18.4117  -10.1242
 HB1    43.0335  -17.7649   -9.6455
 HB2    43.3674  -19.4222  -10.1996
 CG     45.0454  -18.4329   -9.2914
 HG     45.7804  -19.0797   -9.7700
 CD1    45.6059  -17.0179   -9.1851
 1HD1   44.8713  -16.3703   -8.7070
 2HD1   46.5196  -17.0337   -8.5912
 3HD1   45.8290  -16.6394  -10.1830
 CD2    44.7344  -18.9626   -7.8956
 1HD2   44.3341  -19.9740   -7.9718
 2HD2   45.6473  -18.9774   -7.3009
 3HD2   43.9995  -18.3157   -7.4170
 C      45.1421  -18.7832  -12.1335
 O      45.1334  -19.9930  -11.9190
 N      46.0910  -18.2532  -12.9109
 H      46.1607  -17.2704  -13.1304
 CA     47.0781  -19.1543  -13.4699
 HA1    47.6132  -19.6531  -12.6621
 HA2    46.5801  -19.8989  -14.0906
 C      48.0758  -18.3839  -14.3240
 O      47.9325  -17.1779  -14.5139
 N      49.1102  -19.0329  -14.8657
 H      49.2803  -20.0208  -14.7456
 CA     50.0402  -18.2683  -15.6729
 HA     50.5239  -17.5137  -15.0531
 CB     51.1148  -19.1684  -16.2734
 HB1    51.6685  -19.6574  -15.4723
 HB2    50.6460  -19.9240  -16.9036
 CG     52.0712  -18.3289  -17.1131
 HG     51.5174  -17.8399  -17.9143
 CD1    52.7281  -17.2721  -16.2304
 1HD1   53.2816  -17.7603  -15.4286
 2HD1   53.4104  -16.6711  -16.8313
 3HD1   51.9598  -16.6280  -15.8016
 CD2    53.1458  -19.2290  -17.7137
 1HD2   52.6761  -19.9841  -18.3448
 2HD2   53.8290  -18.6285  -18.3135
 3HD2   53.6995  -19.7180  -16.9125
 C      49.3240  -17.5696  -16.8203
 O      49.5404  -16.3843  -17.0610
 N      48.4578  -18.2492  -17.5666
 H      48.2344  -19.2233  -17.4231
 CA     47.7987  -17.5448  -18.6484
 HA     48.5420  -17.2179  -19.3753
 CB     46.7888  -18.4436  -19.3540
 HB1    47.3012  -19.3131  -19.7651
 HB2    46.0331  -18.7719  -18.6406
 CG     46.1186  -17.6682  -20.4828
 HG1    45.6062  -16.7986  -20.0718
 HG2    46.8742  -17.3399  -21.1963
 CD     45.1087  -18.5670  -21.1884
 HD1    45.6211  -19.4365  -21.5995
 HD2    44.3525  -18.8942  -20.4742
 CE     44.4393  -17.7907  -22.3164
 HE1    43.9263  -16.9204  -21.9056
 HE2    45.1936  -17.4625  -23.0309
 NZ     43.4653  -18.6572  -22.9969
 HZ1    42.7653  -18.9613  -22.3346
 HZ2    43.0220  -18.1433  -23.7437
 HZ3    43.9402  -19.4622  -23.3769
 C      47.0526  -16.3223  -18.1322
 O      47.1657  -15.2376  -18.6982
 N      46.2729  -16.4315  -17.0601
 H      46.1361  -17.2914  -16.5491
 CA     45.5813  -15.2425  -16.6029
 HA     44.8887  -14.9059  -17.3742
 CB     44.7931  -15.5220  -15.3277
 HB1    44.0565  -16.3020  -15.5194
 HB2    45.4745  -15.8518  -14.5437
 CG     44.0887  -14.2632  -14.8851
 HG1    44.8254  -13.4822  -14.6931
 HG2    43.4064  -13.9323  -15.6686
 CD     43.2998  -14.5422  -13.6076
 OE1    43.8952  -14.3644  -12.5124
 OE2    42.1092  -14.9321  -13.7405
 C      46.5630  -14.1175  -16.3060
 O      46.3556  -12.9817  -16.7262
 N      47.6529  -14.3682  -15.5860
 H      47.8830  -15.2771  -15.2113
 CA     48.5604  -13.2680  -15.3272
 HA     48.0495  -12.5066  -14.7381
 CB     49.7886  -13.7391  -14.5557
 HB1    50.3152  -14.4958  -15.1370
 HB2    50.4519  -12.8936  -14.3756
 HB3    49.4772  -14.1660  -13.6026
 C      49.0410  -12.6367  -16.6265
 O      49.0354  -11.4160  -16.7662
 N      49.4698  -13.4144  -17.6166
 H      49.5005  -14.4223  -17.5675
 CA     49.9183  -12.7715  -18.8359
 HA     50.7875  -12.1503  -18.6205
 CB     50.3051  -13.8030  -19.8904
 HB1    51.1120  -14.4280  -19.5084
 HB2    49.4422  -14.4270  -20.1226
 CG     50.7704  -13.0889  -21.1545
 HG1    49.9635  -12.4639  -21.5365
 HG2    51.6332  -12.4649  -20.9223
 CD     51.1572  -14.1204  -22.2090
 HD1    51.9641  -14.7454  -21.8271
 HD2    50.2931  -14.7436  -22.4415
 CE     51.6219  -13.4054  -23.4722
 HE1    50.8147  -12.7798  -23.8549
 HE2    52.4851  -12.7817  -23.2417
 NZ     51.9949  -14.3999  -24.4893
 HZ1    51.1943  -14.9781  -24.7037
 HZ2    52.3025  -13.9266  -25.3258
 HZ3    52.7417  -14.9785  -24.1350
 C      48.8251  -11.8910  -19.4253
 O      49.0780  -10.7475  -19.7970
 N      47.5876  -12.3651  -19.5378
 H      47.3126  -13.2937  -19.2523
 CA     46.5780  -11.4929  -20.1043
 HA     46.8413  -11.2535  -21.1344
 CB     45.2069  -12.1606  -20.0939
 HB1    45.2450  -13.0777  -20.6813
 HB2    44.9260  -12.3985  -19.0681
 CG     44.1746  -11.2129  -20.6965
 OD1    43.9850  -11.2824  -21.9414
 OD2    43.5835  -10.4262  -19.9087
 C      46.4696  -10.1953  -19.3157
 O      46.4412   -9.1130  -19.8966
 N      46.4053  -10.2358  -17.9878
 H      46.4236  -11.0896  -17.4493
 CA     46.3028   -8.9768  -17.2769
 HA     45.3723   -8.4797  -17.5505
 CB     46.3134   -9.1958  -15.7678
 HB1    45.4695   -9.8251  -15.4860
 HB2    47.2431   -9.6851  -15.4777
 CG     46.2040   -7.8512  -15.0574
 HG     47.0479   -7.2219  -15.3391
 CD1    44.9019   -7.1672  -15.4627
 1HD1   44.0575   -7.7962  -15.1818
 2HD1   44.8247   -6.2054  -14.9561
 3HD1   44.8945   -7.0099  -16.5417
 CD2    46.2146   -8.0703  -13.5482
 1HD2   47.1454   -8.5589  -13.2587
 2HD2   46.1363   -7.1091  -13.0411
 3HD2   45.3707   -8.6996  -13.2665
 C      47.4656   -8.0565  -17.6217
 O      47.2651   -6.8782  -17.9062
 N      48.7070   -8.5338  -17.6142
 H      48.9409   -9.4900  -17.3898
 CA     49.7839   -7.6230  -17.9485
 HA     49.8261   -6.8234  -17.2092
 CB     51.1276   -8.3438  -17.9649
 HB     51.3236   -8.7694  -16.9810
 CG1    51.0920   -9.4609  -19.0041
 1HG1   50.8960   -9.0353  -19.9880
 2HG1   52.0537   -9.9760  -19.0156
 3HG1   50.3032  -10.1686  -18.7508
 CG2    52.2319   -7.3541  -18.3195
 1HG2   52.2562   -6.5561  -17.5777
 2HG2   53.1926   -7.8681  -18.3318
 3HG2   52.0359   -6.9285  -19.3034
 C      49.5711   -7.0039  -19.3230
 O      49.7049   -5.7939  -19.4895
 N      49.2380   -7.7806  -20.3500
 H      49.1124   -8.7801  -20.2821
 CA     49.0452   -7.1496  -21.6407
 HA     49.9824   -6.7006  -21.9691
 CB     48.5976   -8.1647  -22.6869
 HB1    49.3560   -8.9408  -22.7879
 HB2    47.6559   -8.6165  -22.3758
 CG     48.4087   -7.4708  -24.0133
 HG1    47.6498   -6.6940  -23.9128
 HG2    49.3504   -7.0185  -24.3257
 CD     47.9596   -8.4868  -25.0613
 OE1    46.7206   -8.6657  -25.1965
 OE2    48.8615   -9.0752  -25.7154
 C      47.9841   -6.0605  -21.5652
 O      48.1872   -4.9563  -22.0643
 N      46.8292   -6.3084  -20.9539
 H      46.5985   -7.1922  -20.5238
 CA     45.8474   -5.2432  -20.9054
 HA     46.1470   -4.5067  -20.1601
 CB     45.7245   -4.5476  -22.2568
 HB1    46.6881   -4.1213  -22.5350
 HB2    45.4167   -5.2709  -23.0117
 OG     44.7493   -3.5063  -22.1699
 HG     44.6727   -3.0680  -23.0214
 C      44.4729   -5.7813  -20.5324
 O      44.0649   -5.7022  -19.3761
 N      43.7097   -6.3410  -21.4669
 H      43.9838   -6.4376  -22.4338
 CA     42.4085   -6.8400  -21.0680
 HA     42.3372   -7.9007  -21.3077
 CB     42.1881   -6.6625  -19.5695
 HB1    42.2483   -5.6044  -19.3157
 HB2    41.2046   -7.0451  -19.2983
 HB3    42.9547   -7.2106  -19.0221
 C      41.2924   -6.1011  -21.7931
 O      41.4974   -4.9980  -22.2940
 N      40.0757   -6.6611  -21.8847
 CD     41.2221   -6.9949  -22.7189
 HD1    41.1281   -8.0202  -23.0754
 HD2    41.8644   -7.5759  -22.4659
 CG     40.5836   -7.0160  -24.1178
 HG1    40.4582   -7.8321  -24.8310
 HG2    41.4403   -6.4091  -24.4099
 CB     39.3337   -6.1732  -24.0204
 HB1    38.4969   -6.7097  -24.4680
 HB2    39.4872   -5.2333  -24.5519
 CA     39.0551   -5.9066  -22.5881
 HA     39.2577   -4.8395  -22.4888
 C      37.6906   -6.2194  -21.9912
 O      37.3558   -7.3814  -21.7738
 N      36.8586   -5.2044  -21.7059
 H      37.0825   -4.2327  -21.8640
 CA     35.5648   -5.5283  -21.1382
 HA     35.3330   -6.5746  -21.3359
 CB     35.5551   -5.3031  -19.6299
 HB1    35.7774   -4.2576  -19.4168
 HB2    34.5728   -5.5536  -19.2307
 HB3    36.3093   -5.9364  -19.1632
 C      34.4683   -4.6638  -21.7447
 O      34.6342   -3.4547  -21.8868
 N      33.3227   -5.2237  -22.1230
 H      33.1218   -6.2092  -22.0345
 CA     32.3061   -4.3636  -22.6956
 HA     32.5111   -3.3283  -22.4239
 CB     32.2862   -4.4741  -24.2164
 HB1    32.0736   -5.5037  -24.5036
 HB2    31.5145   -3.8187  -24.6190
 HB3    33.2569   -4.1797  -24.6148
 C      30.9215   -4.7359  -22.1839
 O      30.5718   -5.9126  -22.1309
 N      30.0856   -3.7786  -21.7917
 H      30.3093   -2.7942  -21.8093
 CA     28.7774   -4.1778  -21.3117
 HA     28.5564   -5.1876  -21.6569
 CB     28.7229   -4.1603  -19.7878
 HB1    29.4662   -4.8507  -19.3896
 HB2    28.9338   -3.1535  -19.4277
 CG     27.3343   -4.5854  -19.3231
 HG     26.5910   -3.8950  -19.7213
 CD1    27.0400   -5.9952  -19.8263
 1HD1   27.7831   -6.6862  -19.4290
 2HD1   26.0467   -6.2981  -19.4954
 3HD1   27.0782   -6.0077  -20.9160
 CD2    27.2798   -4.5678  -17.7992
 1HD2   27.4899   -3.5600  -17.4398
 2HD2   26.2873   -4.8718  -17.4677
 3HD2   28.0230   -5.2582  -17.4011
 C      27.6948   -3.2396  -21.8268
 O      27.8591   -2.0223  -21.7979
 N      26.5634   -3.7436  -22.3114
 H      26.3647   -4.7321  -22.3639
 CA     25.5598   -2.8143  -22.7911
 HA     25.7518   -1.8255  -22.3750
 CB     25.5846   -2.7165  -24.3127
 HB1    26.5650   -2.3699  -24.6386
 HB2    25.3853   -3.6975  -24.7436
 CG     24.5174   -1.7315  -24.7770
 HG1    23.5369   -2.0781  -24.4512
 HG2    24.7166   -0.7505  -24.3461
 CD     24.5422   -1.6337  -26.2987
 HD1    25.5226   -1.2871  -26.6245
 HD2    24.3417   -2.6154  -26.7291
 CE     23.4749   -0.6491  -26.7616
 HE1    22.4934   -0.9955  -26.4358
 HE2    23.6732    0.3324  -26.3321
 NZ     23.4985   -0.5546  -28.2289
 HZ1    23.3139   -1.4647  -28.6275
 HZ2    22.7918    0.0972  -28.5355
 HZ3    24.4066   -0.2341  -28.5300
 C      24.1627   -3.2540  -22.3759
 O      23.8172   -4.4272  -22.4939
 N      23.3111   -2.3597  -21.8817
 H      23.5306   -1.3819  -21.7585
 CA     21.9915   -2.8216  -21.4991
 HA     21.7854   -3.7751  -21.9850
 CB     21.8927   -3.0120  -19.9893
 HB1    22.6274   -3.7496  -19.6673
 HB2    22.0883   -2.0635  -19.4895
 CG     20.5077   -3.4926  -19.6321
 HG1    19.7721   -2.7548  -19.9542
 HG2    20.3110   -4.4418  -20.1315
 CD     20.4079   -3.6827  -18.1200
 OE1    20.0313   -2.6930  -17.4386
 OE2    20.7110   -4.8164  -17.6617
 C      20.9199   -1.8228  -21.9133
 O      21.0774   -0.6206  -21.7141
 N      19.7998   -2.2581  -22.4979
 H      19.6022   -3.2286  -22.6927
 CA     18.8121   -1.2668  -22.8724
 HA1    18.9928   -0.3463  -22.3176
 HA2    18.8847   -1.0674  -23.9414
 C      17.4100   -1.7693  -22.5558
 O      17.0798   -2.9173  -22.8455
 N      16.5411   -0.9486  -21.9593
 H      16.7540    0.0031  -21.6977
 CA     15.2154   -1.4600  -21.6728
 HA     15.0235   -2.3377  -22.2898
 CB     15.0850   -1.8568  -20.2062
 HB     15.8155   -2.6311  -19.9729
 CG1    15.3388   -0.6365  -19.3254
 1HG1   14.6083    0.1378  -19.5587
 2HG1   15.2451   -0.9209  -18.2763
 3HG1   16.3429   -0.2563  -19.5110
 CG2    13.6800   -2.3888  -19.9457
 1HG2   13.4989   -3.2595  -20.5756
 2HG2   13.5855   -2.6724  -18.8979
 3HG2   12.9495   -1.6145  -20.1790
 C      14.1490   -0.4147  -21.9687
 O      14.2975    0.7487  -21.6023
 N      13.0489   -0.7655  -22.6289
 H      12.8646   -1.7022  -22.9576
 CA     12.0597    0.2615  -22.8891
 HA     12.2793    1.1395  -22.2819
 CB     12.0659    0.6703  -24.3582
 HB1    13.0493    1.0581  -24.6233
 HB2    11.8391   -0.1969  -24.9781
 OG     11.0797    1.6817  -24.5755
 HG     11.0844    1.9394  -25.5011
 C      10.6590   -0.2278  -22.5482
 O      10.4371   -1.4267  -22.3960
 N       9.6694    0.6507  -22.4146
 H       9.7833    1.6477  -22.5262
 CA      8.3519    0.1413  -22.0897
 HA      8.3803   -0.3434  -21.1140
 CB      7.3235    1.2665  -22.0457
 HB1     7.6130    1.9938  -21.2876
 HB2     7.2778    1.7557  -23.0185
 CG      5.9541    0.6914  -21.7015
 HG1     5.6646   -0.0359  -22.4596
 HG2     5.9998    0.2022  -20.7286
 CD      4.9257    1.8166  -21.6575
 HD1     5.2152    2.5440  -20.8994
 HD2     4.8798    2.3049  -22.6314
 CE      3.5572    1.2406  -21.3135
 HE1     3.2670    0.5126  -22.0719
 HE2     3.6013    0.7517  -20.3407
 NZ      2.5653    2.3254  -21.2711
 HZ1     2.5238    2.7785  -22.1734
 HZ2     1.6592    1.9441  -21.0435
 HZ3     2.8341    2.9987  -20.5693
 C       7.8865   -0.8742  -23.1240
 O       7.3999   -1.9458  -22.7710
 N       8.0086   -0.5974  -24.4192
 H       8.3989    0.2625  -24.7764
 CA      7.5528   -1.5925  -25.3695
 HA      6.4795   -1.7416  -25.2527
 CB      7.8309   -1.1513  -26.8025
 HB1     7.3107   -0.2147  -27.0017
 HB2     8.9027   -1.0063  -26.9370
 CG      7.3380   -2.2229  -27.7699
 OD1     6.1480   -2.1294  -28.1767
 OD2     8.1539   -3.1271  -28.0946
 C       8.2560   -2.9244  -25.1479
 O       7.6131   -3.9709  -25.1136
 N       9.5764   -2.9532  -24.9906
 H      10.1631   -2.1318  -25.0080
 CA     10.2048   -4.2427  -24.7822
 HA     10.0508   -4.8681  -25.6614
 CB     11.7040   -4.0915  -24.5476
 HB1    12.1614   -3.6167  -25.4153
 HB2    11.8737   -3.4746  -23.6653
 CG     12.3270   -5.4673  -24.3329
 OD1    12.7441   -6.0774  -25.3547
 OD2    12.3810   -5.8984  -23.1497
 C       9.6135   -4.9512  -23.5715
 O       9.2833   -6.1328  -23.6400
 N       9.4539   -4.2844  -22.4318
 H       9.7038   -3.3140  -22.3079
 CA      8.8873   -4.9977  -21.3043
 HA      9.5525   -5.8123  -21.0185
 CB      8.7048   -4.0734  -20.1053
 HB1     8.0342   -3.2573  -20.3738
 HB2     8.2782   -4.6346  -19.2745
 HB3     9.6714   -3.6659  -19.8101
 C       7.5253   -5.5814  -21.6535
 O       7.2553   -6.7465  -21.3717
 N       6.6223   -4.8227  -22.2682
 H       6.7793   -3.8597  -22.5276
 CA      5.3388   -5.4187  -22.5819
 HA      4.8329   -5.6989  -21.6581
 CB      4.4520   -4.4420  -23.3469
 HB1     4.2845   -3.5521  -22.7407
 HB2     4.9418   -4.1591  -24.2785
 CG      3.1283   -5.0980  -23.6536
 HG1     3.2954   -5.9887  -24.2603
 HG2     2.6372   -5.3814  -22.7222
 CD      2.2401   -4.1206  -24.4204
 OE1     2.3194   -4.1342  -25.6770
 OE2     1.4917   -3.3687  -23.7407
 C       5.5082   -6.6642  -23.4408
 O       4.9069   -7.6993  -23.1638
 N       6.3136   -6.6294  -24.4987
 H       6.8360   -5.8130  -24.7815
 CA      6.4454   -7.8376  -25.2885
 HA      5.4803   -8.0928  -25.7258
 CB      7.4568   -7.6501  -26.4143
 HB1     8.4302   -7.4025  -25.9913
 HB2     7.5356   -8.5718  -26.9902
 HB3     7.1287   -6.8411  -27.0666
 C       6.9148   -9.0045  -24.4309
 O       6.3552  -10.0961  -24.5027
 N       7.9386   -8.8391  -23.5982
 H       8.4416   -7.9703  -23.4905
 CA      8.3524   -9.9765  -22.8005
 HA      8.6994  -10.7738  -23.4574
 CB      9.4846   -9.5988  -21.8514
 HB1    10.3400   -9.2474  -22.4279
 HB2     9.1491   -8.8071  -21.1816
 CG      9.8906  -10.8189  -21.0322
 HG      9.0352  -11.1703  -20.4557
 CD1    10.3614  -11.9264  -21.9701
 1HD1   11.2166  -11.5756  -22.5473
 2HD1   10.6500  -12.7990  -21.3843
 3HD1    9.5517  -12.1970  -22.6483
 CD2    11.0229  -10.4412  -20.0831
 1HD2   10.6861   -9.6499  -19.4127
 2HD2   11.3127  -11.3136  -19.4980
 3HD2   11.8783  -10.0898  -20.6596
 C       7.1982  -10.5058  -21.9606
 O       6.9570  -11.7099  -21.9205
 N       6.4464   -9.6566  -21.2659
 H       6.5900   -8.6572  -21.2548
 CA      5.3582  -10.2035  -20.4799
 HA      5.7612  -10.8592  -19.7083
 CB      4.5551   -9.0951  -19.8077
 HB1     5.2074   -8.5221  -19.1491
 HB2     4.1382   -8.4353  -20.5684
 CG      3.4228   -9.7096  -18.9923
 HG1     2.7705  -10.2826  -19.6510
 HG2     3.8397  -10.3693  -18.2316
 CD      2.6197   -8.6011  -18.3201
 HD1     3.2720   -8.0281  -17.6614
 HD2     2.2021   -7.9420  -19.0818
 CE      1.4880   -9.2165  -17.5055
 HE1     0.8349   -9.7901  -18.1642
 HE2     1.9035   -9.8759  -16.7440
 NZ      0.7134   -8.1478  -16.8572
 HZ1     0.3274   -7.5365  -17.5633
 HZ2    -0.0360   -8.5552  -16.3180
 HZ3     1.3179   -7.6174  -16.2479
 C       4.4030  -11.0073  -21.3512
 O       4.0223  -12.1205  -20.9966
 N       3.9786  -10.4989  -22.5046
 H       4.2520   -9.5921  -22.8544
 CA      3.0700  -11.2982  -23.3026
 HA      2.1437  -11.4553  -22.7504
 CB      2.7409  -10.6046  -24.6202
 HB1     2.2721   -9.6420  -24.4169
 HB2     3.6580  -10.4483  -25.1880
 CG      1.7850  -11.4746  -25.4287
 HG1     2.2538  -12.4372  -25.6320
 HG2     0.8679  -11.6309  -24.8609
 CD      1.4559  -10.7810  -26.7463
 HD1     0.9870   -9.8185  -26.5430
 HD2     2.3737  -10.6259  -27.3142
 CE      0.5004  -11.6518  -27.5537
 HE1     0.9692  -12.6152  -27.7574
 HE2    -0.4172  -11.8083  -26.9874
 NZ      0.1830  -10.9831  -28.8244
 HZ1     1.0338  -10.8384  -29.3500
 HZ2    -0.4495  -11.5597  -29.3591
 HZ3    -0.2507  -10.0919  -28.6355